; Force field (FF) parameters for DVPC (1,2-divaleryl-sn-glycero-3-phosphocholine)
;;
;; Generated by Erik Poppleton 
;; Based on a Slipids-2020 DLPC file 
;;
;; Correspondance:
;; e.poppleton@zmbh.uni-heidelberg.de
;;
;; GROMACS topology file for DVPC
;;

;!!!!!! MAKE SURE YOU CITE THE FOLLOWING REFERENCES WHEN USING THIS FORCE FIELD !!!!!!
;
; Joakim P. M. Jämbeck and Alexander P. Lyubertsev, "Derivation and Systematic Validation of a Refined All-Atom Force Field for Phosphatidylcholine Lipids",
; J. Phys. Chem. B, submitted
; (This paper also contains more details regarding the parameters)
;
; A great portion of the bonded and nonbonded parameters comes from CHARMM36, so also cite:
;
; Jeffery B. Klauda, Richard M. Venable, J. Alfredo Freites, Joseph
; W. O’Connor, Douglas J. Tobias, Carlos Mondragon-Ramirez, Igor
; Vorobyov, Alexander D. MacKerell, Jr. and Richard W. Pastor "Update of
; the CHARMM All-Atom Additive Force Field for Lipids: Validation on Six
; Lipid Types" J. Phys. Chem. B, 2010, 114 (23), pp 7830–7843


[ moleculetype ]
; Name            nrexcl
DVPC               3

[ atoms ]
;   #        Type  Res #   Residue  Atom    Cgnr   Charge Mass 
     1        NTL      1   DVPC      N      1      0.20   14.007   
     2       CTL5      1   DVPC    C13      2     -0.38   12.011   
     3         HL      1   DVPC   H13A      3      0.19    1.008   
     4         HL      1   DVPC   H13B      4      0.19    1.008   
     5         HL      1   DVPC   H13C      5      0.19    1.008   
     6       CTL5      1   DVPC    C14      6     -0.38   12.011   
     7         HL      1   DVPC   H14A      7      0.19    1.008   
     8         HL      1   DVPC   H14B      8      0.19    1.008   
     9         HL      1   DVPC   H14C      9      0.19    1.008   
    10       CTL5      1   DVPC    C15     10     -0.38   12.011   
    11         HL      1   DVPC   H15A     11      0.19    1.008   
    12         HL      1   DVPC   H15B     12      0.19    1.008   
    13         HL      1   DVPC   H15C     13      0.19    1.008   
    14       CTL2      1   DVPC    C12     14     -0.20   12.011   
    15         HL      1   DVPC   H12A     15      0.09    1.008   
    16         HL      1   DVPC   H12B     16      0.09    1.008   
    17       CTL2      1   DVPC    C11     17      0.17   12.011   
    18       HAL2      1   DVPC   H11A     18      0.03    1.008   
    19       HAL2      1   DVPC   H11B     19      0.03    1.008   
    20         PL      1   DVPC      P     20      1.58   30.974   
    21        O2L      1   DVPC    O13     21     -0.86  15.9994   
    22        O2L      1   DVPC    O14     22     -0.86  15.9994   
    23       OSLP      1   DVPC    O11     23     -0.49  15.9994   
    24       OSLP      1   DVPC    O12     24     -0.49  15.9994   
    25       CTL2      1   DVPC     C1     25     -0.11   12.011   
    26       HAL2      1   DVPC     HA     26      0.07    1.008   
    27       HAL2      1   DVPC     HB     27      0.07    1.008   
    28       CTL1      1   DVPC     C2     28      0.48   12.011   
    29       HAL1      1   DVPC     HS     29      0.04    1.008   
    30        OSL      1   DVPC    O21     30     -0.47  15.9994   
    31         CL      1   DVPC    C21     31      0.79   12.011   
    32        OBL      1   DVPC    O22     32     -0.65  15.9994   
    33       CTL2      1   DVPC    C22     33     -0.06   12.011   
    34       HAL2      1   DVPC    H2R     34      0.03    1.008   
    35       HAL2      1   DVPC    H2S     35      0.03    1.008   
    36       CTL2      1   DVPC     C3     36      0.13   12.011   
    37       HAL2      1   DVPC     HX     37      0.06    1.008   
    38       HAL2      1   DVPC     HY     38      0.06    1.008   
    39        OSL      1   DVPC    O31     39     -0.47  15.9994   
    40         CL      1   DVPC    C31     40      0.79   12.011   
    41        OBL      1   DVPC    O32     41     -0.65  15.9994   
    42       CTL2      1   DVPC    C32     42     -0.06   12.011   
    43       HAL2      1   DVPC    H2X     43      0.03    1.008   
    44       HAL2      1   DVPC    H2Y     44      0.03    1.008   
    45       CTL2      1   DVPC    C23     45      0.00   12.011   
    46       HAL2      1   DVPC    H3R     46      0.00    1.008   
    47       HAL2      1   DVPC    H3S     47      0.00    1.008   
    48       CTL2      1   DVPC    C24     48      0.00   12.011   
    49       HAL2      1   DVPC    H4R     49      0.00    1.008   
    50       HAL2      1   DVPC    H4S     50      0.00    1.008   
    51       CTL2      1   DVPC    C25     51      0.047  12.011   
    52       HAL2      1   DVPC    H5R     52     -0.007   1.008   
    53       HAL2      1   DVPC    H5S     53     -0.007   1.008   
    54       CTL3      1   DVPC    C26     54     -0.081  12.011   
    55       HAL3      1   DVPC    H6R     55      0.016   1.008   
    56       HAL3      1   DVPC    H6S     56      0.016   1.008   
    57       HAL3      1   DVPC    H6T     57      0.016   1.008   
    58       CTL2      1   DVPC    C33     58      0.00   12.011   
    59       HAL2      1   DVPC    H3X     59      0.00    1.008   
    60       HAL2      1   DVPC    H3Y     60      0.00    1.008   
    61       CTL2      1   DVPC    C34     61      0.00   12.011   
    62       HAL2      1   DVPC    H4X     62      0.00    1.008   
    63       HAL2      1   DVPC    H4Y     63      0.00    1.008   
    64       CTL2      1   DVPC    C35     64      0.047  12.011   
    65       HAL2      1   DVPC    H5X     65     -0.007   1.008   
    66       HAL2      1   DVPC    H5Y     66     -0.007   1.008   
    67       CTL3      1   DVPC    C36     67     -0.081  12.011   
    68       HAL3      1   DVPC    H6X     68      0.016   1.008   
    69       HAL3      1   DVPC    H6Y     69      0.016   1.008   
    70       HAL3      1   DVPC    H6Z     70      0.016   1.008   

[ bonds ]
;  ai    aj funct            c0            c1            c2            c3
    1     2     1 
    1     6     1 
    1    10     1 
    1    14     1 
    2     3     1 
    2     4     1 
    2     5     1 
    6     7     1 
    6     8     1 
    6     9     1 
   10    11     1 
   10    12     1 
   10    13     1 
   14    15     1 
   14    16     1 
   14    17     1 
   17    18     1 
   17    19     1 
   17    24     1 
   20    21     1 
   20    22     1 
   20    23     1 
   20    24     1 
   23    25     1 
   25    26     1 
   25    27     1 
   25    28     1 
   28    29     1 
   28    30     1 
   28    36     1 
   30    31     1 
   31    32     1 
   31    33     1 
   33    34     1 
   33    35     1 
   33    45     1 
   36    37     1 
   36    38     1 
   36    39     1 
   39    40     1 
   40    41     1 
   40    42     1 
   42    43     1 
   42    44     1 
   42    58     1 
   45    46     1 
   45    47     1 
   45    48     1 
   48    49     1 
   48    50     1 
   48    51     1 
   51    52     1 
   51    53     1 
   51    54     1 
   54    55     1 
   54    56     1 
   54    57     1 
   58    59     1 
   58    60     1 
   58    61     1 
   61    62     1 
   61    63     1 
   61    64     1 
   64    65     1 
   64    66     1 
   64    67     1 
   67    68     1 
   67    69     1 
   67    70     1 

[ pairs ]
;  ai    aj funct            c0            c1            c2            c3
    1    18     1 
    1    19     1 
    1    24     1 
    2     7     1 
    2     8     1 
    2     9     1 
    2    11     1 
    2    12     1 
    2    13     1 
    2    15     1 
    2    16     1 
    2    17     1 
    3     6     1 
    3    10     1 
    3    14     1 
    4     6     1 
    4    10     1 
    4    14     1 
    5     6     1 
    5    10     1 
    5    14     1 
    6    11     1 
    6    12     1 
    6    13     1 
    6    15     1 
    6    16     1 
    6    17     1 
    7    10     1 
    7    14     1 
    8    10     1 
    8    14     1 
    9    10     1 
    9    14     1 
   10    15     1 
   10    16     1 
   10    17     1 
   11    14     1 
   12    14     1 
   13    14     1 
   14    20     1 
   15    18     1 
   15    19     1 
   15    24     1 
   16    18     1 
   16    19     1 
   16    24     1 
   17    21     1 
   17    22     1 
   17    23     1 
   18    20     1 
   19    20     1 
   20    26     1 
   20    27     1 
   20    28     1 
   21    25     1 
   22    25     1 
   23    29     1 
   23    30     1 
   23    36     1 
   24    25     1 
   25    31     1 
   25    37     1 
   25    38     1 
   25    39     1 
   26    29     1 
   26    30     1 
   26    36     1 
   27    29     1 
   27    30     1 
   27    36     1 
   28    32     1 
   28    33     1 
   28    40     1 
   29    31     1 
   29    37     1 
   29    38     1 
   29    39     1 
   30    34     1 
   30    35     1 
   30    37     1 
   30    38     1 
   30    39     1 
   30    45     1 
   31    36     1 
   31    46     1 
   31    47     1 
   31    48     1 
   32    34     1 
   32    35     1 
   32    45     1 
   33    49     1 
   33    50     1 
   33    51     1 
   34    46     1 
   34    47     1 
   34    48     1 
   35    46     1 
   35    47     1 
   35    48     1 
   36    41     1 
   36    42     1 
   37    40     1 
   38    40     1 
   39    43     1 
   39    44     1 
   39    58     1 
   40    59     1 
   40    60     1 
   40    61     1 
   41    43     1 
   41    44     1 
   41    58     1 
   42    62     1 
   42    63     1 
   42    64     1 
   43    59     1 
   43    60     1 
   43    61     1 
   44    59     1 
   44    60     1 
   44    61     1 
   45    52     1 
   45    53     1 
   45    54     1 
   46    49     1 
   46    50     1 
   46    51     1 
   47    49     1 
   47    50     1 
   47    51     1 
   48    55     1 
   48    56     1 
   48    57     1 
   49    52     1 
   49    53     1 
   49    54     1 
   50    52     1 
   50    53     1 
   50    54     1 
   52    55     1 
   52    56     1 
   52    57     1 
   53    55     1 
   53    56     1 
   53    57     1 
   58    65     1 
   58    66     1 
   58    67     1 
   59    62     1 
   59    63     1 
   59    64     1 
   60    62     1 
   60    63     1 
   60    64     1 
   61    68     1 
   61    69     1 
   61    70     1 
   62    65     1 
   62    66     1 
   62    67     1 
   63    65     1 
   63    66     1 
   63    67     1 
   65    68     1 
   65    69     1 
   65    70     1 
   66    68     1 
   66    69     1 
   66    70     1 

[ angles ]
;  ai    aj    ak funct            c0            c1            c2            c3
    2     1     6     5 
    2     1    10     5 
    2     1    14     5 
    6     1    10     5 
    6     1    14     5 
   10     1    14     5 
    1     2     3     5 
    1     2     4     5 
    1     2     5     5 
    3     2     4     5 
    3     2     5     5 
    4     2     5     5 
    1     6     7     5 
    1     6     8     5 
    1     6     9     5 
    7     6     8     5 
    7     6     9     5 
    8     6     9     5 
    1    10    11     5 
    1    10    12     5 
    1    10    13     5 
   11    10    12     5 
   11    10    13     5 
   12    10    13     5 
    1    14    15     5 
    1    14    16     5 
    1    14    17     5 
   15    14    16     5 
   15    14    17     5 
   16    14    17     5 
   14    17    18     5 
   14    17    19     5 
   14    17    24     5 
   18    17    19     5 
   18    17    24     5 
   19    17    24     5 
   21    20    22     5 
   21    20    23     5 
   21    20    24     5 
   22    20    23     5 
   22    20    24     5 
   23    20    24     5 
   20    23    25     5 
   17    24    20     5 
   23    25    26     5 
   23    25    27     5 
   23    25    28     5 
   26    25    27     5 
   26    25    28     5 
   27    25    28     5 
   25    28    29     5 
   25    28    30     5 
   25    28    36     5 
   29    28    30     5 
   29    28    36     5 
   30    28    36     5 
   28    30    31     5 
   30    31    32     5 
   30    31    33     5 
   32    31    33     5 
   31    33    34     5 
   31    33    35     5 
   31    33    45     5 
   34    33    35     5 
   34    33    45     5 
   35    33    45     5 
   28    36    37     5 
   28    36    38     5 
   28    36    39     5 
   37    36    38     5 
   37    36    39     5 
   38    36    39     5 
   36    39    40     5 
   39    40    41     5 
   39    40    42     5 
   41    40    42     5 
   40    42    43     5 
   40    42    44     5 
   40    42    58     5 
   43    42    44     5 
   43    42    58     5 
   44    42    58     5 
   33    45    46     5 
   33    45    47     5 
   33    45    48     5 
   46    45    47     5 
   46    45    48     5 
   47    45    48     5 
   45    48    49     5 
   45    48    50     5 
   45    48    51     5 
   49    48    50     5 
   49    48    51     5 
   50    48    51     5 
   48    51    52     5 
   48    51    53     5 
   48    51    54     5 
   52    51    53     5 
   52    51    54     5 
   53    51    54     5 
   51    54    55     5 
   51    54    56     5 
   51    54    57     5 
   55    54    56     5 
   55    54    57     5 
   56    54    57     5 
   42    58    59     5 
   42    58    60     5 
   42    58    61     5 
   59    58    60     5 
   59    58    61     5 
   60    58    61     5 
   58    61    62     5 
   58    61    63     5 
   58    61    64     5 
   62    61    63     5 
   62    61    64     5 
   63    61    64     5 
   61    64    65     5 
   61    64    66     5 
   61    64    67     5 
   65    64    66     5 
   65    64    67     5 
   66    64    67     5 
   64    67    68     5 
   64    67    69     5 
   64    67    70     5 
   68    67    69     5 
   68    67    70     5 
   69    67    70     5 

[ dihedrals ]
;  ai    aj    ak    al funct            c0            c1            c2            c3            c4            c5
    6     1     2     3     9 
    6     1     2     4     9 
    6     1     2     5     9 
   10     1     2     3     9 
   10     1     2     4     9 
   10     1     2     5     9 
   14     1     2     3     9 
   14     1     2     4     9 
   14     1     2     5     9 
    2     1     6     7     9 
    2     1     6     8     9 
    2     1     6     9     9 
   10     1     6     7     9 
   10     1     6     8     9 
   10     1     6     9     9 
   14     1     6     7     9 
   14     1     6     8     9 
   14     1     6     9     9 
    2     1    10    11     9 
    2     1    10    12     9 
    2     1    10    13     9 
    6     1    10    11     9 
    6     1    10    12     9 
    6     1    10    13     9 
   14     1    10    11     9 
   14     1    10    12     9 
   14     1    10    13     9 
    2     1    14    15     9 
    2     1    14    16     9 
    2     1    14    17     9 
    6     1    14    15     9 
    6     1    14    16     9 
    6     1    14    17     9 
   10     1    14    15     9 
   10     1    14    16     9 
   10     1    14    17     9 
    1    14    17    18     9 
    1    14    17    19     9 
    1    14    17    24     9 
   15    14    17    18     9 
   15    14    17    19     9 
   15    14    17    24     9 
   16    14    17    18     9 
   16    14    17    19     9 
   16    14    17    24     9 
   14    17    24    20     9 
   18    17    24    20     9 
   19    17    24    20     9 
   21    20    23    25     9 
   22    20    23    25     9 
   24    20    23    25     9 
   21    20    24    17     9 
   22    20    24    17     9 
   23    20    24    17     9 
   20    23    25    26     9 
   20    23    25    27     9 
   20    23    25    28     9 
   23    25    28    29     9 
   23    25    28    30     9 
   23    25    28    36     9 
   26    25    28    29     9 
   26    25    28    30     9 
   26    25    28    36     9 
   27    25    28    29     9 
   27    25    28    30     9 
   27    25    28    36     9 
   25    28    30    31     9 
   29    28    30    31     9 
   36    28    30    31     9 
   25    28    36    37     9 
   25    28    36    38     9 
   25    28    36    39     9 
   29    28    36    37     9 
   29    28    36    38     9 
   29    28    36    39     9 
   30    28    36    37     9 
   30    28    36    38     9 
   30    28    36    39     9 
   28    30    31    32     9 
   28    30    31    33     9 
   30    31    33    34     9 
   30    31    33    35     9 
   30    31    33    45     9 
   32    31    33    34     9 
   32    31    33    35     9 
   32    31    33    45     9 
   31    33    45    46     9 
   31    33    45    47     9 
   31    33    45    48     9 
   34    33    45    46     9 
   34    33    45    47     9 
   34    33    45    48     9 
   35    33    45    46     9 
   35    33    45    47     9 
   35    33    45    48     9 
   28    36    39    40     9 
   37    36    39    40     9 
   38    36    39    40     9 
   36    39    40    41     9 
   36    39    40    42     9 
   39    40    42    43     9 
   39    40    42    44     9 
   39    40    42    58     9 
   41    40    42    43     9 
   41    40    42    44     9 
   41    40    42    58     9 
   40    42    58    59     9 
   40    42    58    60     9 
   40    42    58    61     9 
   43    42    58    59     9 
   43    42    58    60     9 
   43    42    58    61     9 
   44    42    58    59     9 
   44    42    58    60     9 
   44    42    58    61     9 
   33    45    48    49     9 
   33    45    48    50     9 
   33    45    48    51     9 
   46    45    48    49     9 
   46    45    48    50     9 
   46    45    48    51     9 
   47    45    48    49     9 
   47    45    48    50     9 
   47    45    48    51     9 
   45    48    51    52     9 
   45    48    51    53     9 
   45    48    51    54     9 
   49    48    51    52     9 
   49    48    51    53     9 
   49    48    51    54     9 
   50    48    51    52     9 
   50    48    51    53     9 
   50    48    51    54     9 
   48    51    54    55     9 
   48    51    54    56     9 
   48    51    54    57     9 
   52    51    54    55     9 
   52    51    54    56     9 
   52    51    54    57     9 
   53    51    54    55     9 
   53    51    54    56     9 
   53    51    54    57     9 
   42    58    61    62     9 
   42    58    61    63     9 
   42    58    61    64     9 
   59    58    61    62     9 
   59    58    61    63     9 
   59    58    61    64     9 
   60    58    61    62     9 
   60    58    61    63     9 
   60    58    61    64     9 
   58    61    64    65     9 
   58    61    64    66     9 
   58    61    64    67     9 
   62    61    64    65     9 
   62    61    64    66     9 
   62    61    64    67     9 
   63    61    64    65     9 
   63    61    64    66     9 
   63    61    64    67     9 
   61    64    67    68     9 
   61    64    67    69     9 
   61    64    67    70     9 
   65    64    67    68     9 
   65    64    67    69     9 
   65    64    67    70     9 
   66    64    67    68     9 
   66    64    67    69     9 
   66    64    67    70     9 

[ dihedrals ]
;  ai    aj    ak    al funct            c0            c1            c2            c3
   31    30    33    32     2 
   40    39    42    41     2 

#ifdef POSRES
[ position_restraints ]
20 1 0.0 0.0 POSRES_FC_LIPID
31 1 0.0 0.0 POSRES_FC_HMMM 
40 1 0.0 0.0 POSRES_FC_HMMM 
#endif

#ifdef DIHRES
[ dihedral_restraints ]
   25    36    28    30     1   -120.0      2.5       DIHRES_FC
#endif